LAMMPS Description

     9  atoms
     8  bonds
     13  angles
     12  dihedrals
     0  impropers

     69  atom types
     257  bond types
     157  angle types
     47  dihedral types
     5  improper types

  -25.0 25.0 xlo xhi
  -25.0 25.0 ylo yhi
  -25.0 25.0 zlo zhi

Atoms  # full

1 1 58 0.416000 -1.9369905062 -0.2081816975 0.0040602859
2 1 67 -0.682000 -1.1279468851 0.3278606324 -0.011387526
3 1 64 0.372000 -0.0167571662 -0.5742959091 0.000706397
4 1 20 -0.029000 -0.041197224 -1.2312464271 -0.8829297649
5 1 20 -0.029000 -0.0495561329 -1.221895854 0.8906665078
6 1 12 -0.285000 1.2618924546 0.247685031 0.0008714883
7 1 20 0.079000 2.1384779577 -0.4097045525 -0.0085532681
8 1 20 0.079000 1.3137746208 0.8820663981 0.8929215989
9 1 20 0.079000 1.3044562461 0.8928912365 -0.8839623041

Bonds

1 60 1 2
2 18 2 3
3 39 3 4
4 39 3 5
5 26 3 6
6 3 6 7
7 3 6 8
8 3 6 9

Angles

1 12 1 2 3
2 15 2 3 4
3 15 2 3 5
4 13 2 3 6
5 43 4 3 5
6 51 4 3 6
7 51 5 3 6
8 51 3 6 7
9 51 3 6 8
10 51 3 6 9
11 47 7 6 8
12 47 7 6 9
13 47 8 6 9

Dihedrals

1 47 1 2 3 4
2 47 1 2 3 5
3 23 1 2 3 6
4 34 2 3 6 7
5 47 2 3 6 8
6 47 2 3 6 9
7 47 4 3 6 7
8 47 4 3 6 8
9 47 4 3 6 9
10 47 5 3 6 7
11 47 5 3 6 8
12 47 5 3 6 9

