# LAMMPS data file for methane 
# Created using atb2lammps 
# https://github.com/simongravelle/atb2lammps

5 atoms
4 bonds
6 angles

2 atom types
1 bond types
1 angle types

-25 25 xlo xhi
-25 25 ylo yhi
-25 25 zlo zhi

Atoms

1 1 2 0.13 0.9035049 0.004808492 -0.6166447 
2 1 1 -0.52 -5.3088647e-06 -5.6886556e-08 2.9416964e-07 
3 1 2 0.13 -0.010476876 0.8882221 0.63832307 
4 1 2 0.13 -0.01039234 -0.8979823 0.6245193 
5 1 2 0.13 -0.8825725 0.0049523874 -0.6462012 

Bonds

1 1 1 2 
2 1 2 3 
3 1 2 4 
4 1 2 5 

Angles

1 1 1 2 3 
2 1 1 2 4 
3 1 1 2 5 
4 1 3 2 4 
5 1 3 2 5 
6 1 4 2 5 
