# LAMMPS data file 
# Created using atb2lammps 
# https://github.com/simongravelle/atb2lammps

11 atoms
10 bonds
18 angles
18 dihedrals

2 atom types
2 bond types
4 angle types
2 dihedral types

-25 25 xlo xhi
-25 25 ylo yhi
-25 25 zlo zhi

Atoms

1 1 2 0.068 -1.3227307 -0.9148482 -0.88499457 
2 1 1 -0.302 -1.2780856 -0.26728785 0.0001742144 
3 1 2 0.068 -1.3234067 -0.91411424 0.8858939 
4 1 2 0.068 -2.1764286 0.36190155 -8.88501e-05 
5 1 1 0.27 5.019e-07 0.579323 -5.17898e-05 
6 1 2 -0.037 0.0001155196 1.2391723 0.8786535 
7 1 2 -0.037 -0.0001144108 1.2390021 -0.8788959 
8 1 1 -0.302 1.2780874 -0.26728663 -0.0002116553 
9 1 2 0.068 1.3234109 -0.9142935 -0.8857855 
10 1 2 0.068 1.3227309 -0.9146671 0.8851018 
11 1 2 0.068 2.176429 0.3619043 7.79969e-05 

Bonds

1 1 1 2 
2 1 2 3 
3 1 2 4 
4 2 2 5 
5 1 5 6 
6 1 5 7 
7 2 5 8 
8 1 8 9 
9 1 8 10 
10 1 8 11 

Angles

1 2 1 2 3 
2 2 1 2 4 
3 1 1 2 5 
4 2 3 2 4 
5 1 3 2 5 
6 1 4 2 5 
7 4 2 5 6 
8 4 2 5 7 
9 1 2 5 8 
10 3 6 5 7 
11 4 6 5 8 
12 4 7 5 8 
13 1 5 8 9 
14 1 5 8 10 
15 1 5 8 11 
16 2 9 8 10 
17 2 9 8 11 
18 2 10 8 11 

Dihedrals

1 2 1 2 5 6 
2 2 1 2 5 7 
3 2 1 2 5 8 
4 1 2 5 8 9 
5 2 2 5 8 10 
6 2 2 5 8 11 
7 2 3 2 5 6 
8 2 3 2 5 7 
9 1 3 2 5 8 
10 2 4 2 5 6 
11 2 4 2 5 7 
12 2 4 2 5 8 
13 2 6 5 8 9 
14 2 6 5 8 10 
15 2 6 5 8 11 
16 2 7 5 8 9 
17 2 7 5 8 10 
18 2 7 5 8 11 
