# LAMMPS data file 
# Created using atb2lammps 
# https://github.com/simongravelle/atb2lammps

33 atoms
32 bonds
58 angles
72 dihedrals

5 atom types
5 bond types
4 angle types
4 dihedral types

-25 25 xlo xhi
-25 25 ylo yhi
-25 25 zlo zhi

Atoms

1 1 2 0.148 -4.374734 0.49415112 0.16466776 
2 1 1 -0.644 -3.7210774 -0.14820477 0.7659634 
3 1 2 0.148 -4.302572 -1.0241987 1.0777252 
4 1 2 0.148 -3.4361951 0.40630665 1.667666 
5 1 5 1.164 -2.2036445 -0.6618743 -0.20525971 
6 1 4 -0.862 -1.2613432 -1.5542009 0.8497051 
7 1 3 0.483 -0.38000688 -1.818081 0.5011788 
8 1 1 -0.644 -2.632389 -1.6401778 -1.750436 
9 1 2 0.148 -3.2192466 -2.5316682 -1.4991673 
10 1 2 0.148 -1.728738 -1.968882 -2.2783644 
11 1 2 0.148 -3.222021 -1.0316286 -2.4464896 
12 1 4 -0.759 -1.379496 0.706075 -0.72454023 
13 1 5 1.168 -0.03145504 1.5814228 -0.27786702 
14 1 1 -0.645 0.097732425 3.0558796 -1.4254245 
15 1 2 0.145 -0.7940262 3.690033 -1.3567942 
16 1 2 0.145 0.20671248 2.7321029 -2.4669566 
17 1 2 0.145 0.96965253 3.6688335 -1.1683983 
18 1 1 -0.645 -0.15063013 2.075889 1.5296394 
19 1 2 0.145 0.7481876 2.611165 1.8577904 
20 1 2 0.145 -0.2762486 1.1972268 2.1727912 
21 1 2 0.145 -1.0138184 2.7330418 1.6907699 
22 1 4 -0.759 1.3424795 0.660758 -0.5291864 
23 1 5 1.164 2.2630072 -0.6204131 -0.009977606 
24 1 4 -0.862 1.3288801 -2.043356 -0.08965471 
25 1 3 0.483 1.3021346 -2.455613 -0.9684415 
26 1 1 -0.644 2.731031 -0.444577 1.7923142 
27 1 2 0.148 3.313935 0.47019184 1.9515446 
28 1 2 0.148 1.8448073 -0.39504465 2.4345489 
29 1 2 0.148 3.3402262 -1.295587 2.1177585 
30 1 1 -0.644 3.7279677 -0.7781151 -1.165965 
31 1 2 0.148 3.405449 -0.9367574 -2.2019405 
32 1 2 0.148 4.369126 -1.6177438 -0.8742183 
33 1 2 0.148 4.334401 0.13512814 -1.1435785 

Bonds

1 1 1 2 
2 1 2 3 
3 1 2 4 
4 2 2 5 
5 4 5 6 
6 2 5 8 
7 5 5 12 
8 3 6 7 
9 1 8 9 
10 1 8 10 
11 1 8 11 
12 4 12 13 
13 2 13 14 
14 2 13 18 
15 4 13 22 
16 1 14 15 
17 1 14 16 
18 1 14 17 
19 1 18 19 
20 1 18 20 
21 1 18 21 
22 5 22 23 
23 4 23 24 
24 2 23 26 
25 2 23 30 
26 3 24 25 
27 1 26 27 
28 1 26 28 
29 1 26 29 
30 1 30 31 
31 1 30 32 
32 1 30 33 

Angles

1 1 1 2 3 
2 1 1 2 4 
3 3 1 2 5 
4 1 3 2 4 
5 3 3 2 5 
6 3 4 2 5 
7 2 2 5 6 
8 2 2 5 8 
9 2 2 5 12 
10 2 6 5 8 
11 2 6 5 12 
12 2 8 5 12 
13 2 5 6 7 
14 3 5 8 9 
15 3 5 8 10 
16 3 5 8 11 
17 1 9 8 10 
18 1 9 8 11 
19 1 10 8 11 
20 4 5 12 13 
21 2 12 13 14 
22 2 12 13 18 
23 2 12 13 22 
24 2 14 13 18 
25 2 14 13 22 
26 2 18 13 22 
27 3 13 14 15 
28 3 13 14 16 
29 3 13 14 17 
30 1 15 14 16 
31 1 15 14 17 
32 1 16 14 17 
33 3 13 18 19 
34 3 13 18 20 
35 3 13 18 21 
36 1 19 18 20 
37 1 19 18 21 
38 1 20 18 21 
39 4 13 22 23 
40 2 22 23 24 
41 2 22 23 26 
42 2 22 23 30 
43 2 24 23 26 
44 2 24 23 30 
45 2 26 23 30 
46 2 23 24 25 
47 3 23 26 27 
48 3 23 26 28 
49 3 23 26 29 
50 1 27 26 28 
51 1 27 26 29 
52 1 28 26 29 
53 3 23 30 31 
54 3 23 30 32 
55 3 23 30 33 
56 1 31 30 32 
57 1 31 30 33 
58 1 32 30 33 

Dihedrals

1 4 1 2 5 6 
2 4 1 2 5 8 
3 4 1 2 5 12 
4 4 2 5 6 7 
5 4 2 5 8 9 
6 4 2 5 8 10 
7 4 2 5 8 11 
8 4 2 5 12 13 
9 4 3 2 5 6 
10 4 3 2 5 8 
11 2 3 2 5 12 
12 4 4 2 5 6 
13 4 4 2 5 8 
14 4 4 2 5 12 
15 4 5 12 13 14 
16 4 5 12 13 18 
17 1 5 12 13 22 
18 4 6 5 8 9 
19 4 6 5 8 10 
20 4 6 5 8 11 
21 3 6 5 12 13 
22 4 7 6 5 8 
23 4 8 5 12 13 
24 1 7 6 5 12 
25 2 9 8 5 12 
26 4 10 8 5 12 
27 4 11 8 5 12 
28 4 12 13 14 15 
29 4 12 13 14 16 
30 4 12 13 14 17 
31 4 12 13 18 19 
32 4 12 13 18 20 
33 4 12 13 18 21 
34 1 12 13 22 23 
35 1 13 22 23 24 
36 4 13 22 23 26 
37 4 13 22 23 30 
38 4 14 13 18 19 
39 4 14 13 18 20 
40 4 14 13 18 21 
41 4 14 13 22 23 
42 4 15 14 13 18 
43 4 16 14 13 18 
44 4 17 14 13 18 
45 4 18 13 22 23 
46 2 15 14 13 22 
47 4 16 14 13 22 
48 4 17 14 13 22 
49 2 19 18 13 22 
50 4 20 18 13 22 
51 4 21 18 13 22 
52 4 22 23 24 25 
53 4 22 23 26 27 
54 4 22 23 26 28 
55 4 22 23 26 29 
56 4 22 23 30 31 
57 4 22 23 30 32 
58 4 22 23 30 33 
59 2 24 23 26 27 
60 4 24 23 26 28 
61 4 24 23 26 29 
62 2 24 23 30 31 
63 4 24 23 30 32 
64 4 24 23 30 33 
65 1 25 24 23 26 
66 4 26 23 30 31 
67 4 26 23 30 32 
68 4 26 23 30 33 
69 4 25 24 23 30 
70 4 27 26 23 30 
71 4 28 26 23 30 
72 4 29 26 23 30 
