# LAMMPS data file for bicarbonate 
# Created using atb2lammps 
# https://github.com/simongravelle/atb2lammps

5 atoms
4 bonds
4 angles
2 dihedrals
1 impropers

4 atom types
3 bond types
3 angle types
2 dihedral types
1 improper types

-25 25 xlo xhi
-25 25 ylo yhi
-25 25 zlo zhi

Atoms

1 1 1 -0.773 -1.3148882 0.047919683 -0.0034000678 
2 1 4 0.848 -0.0694199 0.10640035 0.0005692819 
3 1 1 -0.773 0.7074289 1.091471 0.002931056 
4 1 2 -0.701 0.56158435 -1.1679181 0.0073407697 
5 1 3 0.399 1.5126714 -0.97017294 -0.008042834 

Bonds

1 1 1 2 
2 1 2 3 
3 2 2 4 
4 3 4 5 

Angles

1 2 1 2 3 
2 3 1 2 4 
3 3 3 2 4 
4 1 2 4 5 

Dihedrals

1 2 1 2 4 5 
2 1 3 2 4 5 

Impropers

1 1 2 1 3 4 
