# LAMMPS data file for octadecane 
# Created using atb2lammps 
# https://github.com/simongravelle/atb2lammps

56 atoms
55 bonds
108 angles
153 dihedrals

2 atom types
3 bond types
7 angle types
2 dihedral types

-25 25 xlo xhi
-25 25 ylo yhi
-25 25 zlo zhi

Atoms

1 1 2 0.072 -9.365197 0.86103016 -0.20594935 
2 1 1 -0.211 -8.995483 0.6739647 0.83125883 
3 1 2 0.072 -9.554519 -0.19510311 1.2554734 
4 1 2 0.072 -9.224513 1.5747054 1.4511755 
5 1 1 -0.158 -7.514677 0.39448953 0.8255109 
6 1 2 0.077 -7.3111215 -0.5383898 0.23528677 
7 1 2 0.077 -7.162767 0.20293948 1.8740875 
8 1 1 -0.157 -6.735768 1.5504551 0.23194668 
9 1 2 0.078 -7.0336704 1.6898826 -0.8410442 
10 1 2 0.078 -7.0104547 2.4940264 0.7757541 
11 1 1 -0.156 -5.237983 1.3524283 0.32244936 
12 1 2 0.078 -4.728192 2.3153038 0.053024676 
13 1 2 0.078 -4.953443 1.1119906 1.3800572 
14 1 1 -0.158 -4.738611 0.25646317 -0.5946933 
15 1 2 0.078 -5.0889597 0.4515841 -1.6420214 
16 1 2 0.078 -5.17257 -0.72837675 -0.27901134 
17 1 1 -0.158 -3.22714 0.17199828 -0.5715174 
18 1 2 0.08 -2.7913325 1.1420363 -0.9293992 
19 1 2 0.08 -2.8765194 0.021715544 0.48334473 
20 1 1 -0.156 -2.729398 -0.96215206 -1.4424549 
21 1 2 0.078 -3.1002765 -1.9382226 -1.0319594 
22 1 2 0.078 -3.1622717 -0.8507007 -2.4723792 
23 1 1 -0.156 -1.2196999 -0.9957769 -1.5478382 
24 1 2 0.078 -0.9285232 -1.7267953 -2.3481135 
25 1 2 0.078 -0.84212077 0.010864088 -1.8663913 
26 1 1 -0.158 -0.5537934 -1.3951392 -0.24853763 
27 1 2 0.079 -0.76441765 -0.6232847 0.53730506 
28 1 2 0.079 -0.9863773 -2.3638031 0.11530793 
29 1 1 -0.158 0.9428237 -1.5415679 -0.42377177 
30 1 2 0.079 1.3668929 -0.5882153 -0.83513284 
31 1 2 0.079 1.15672 -2.3487332 -1.1726674 
32 1 1 -0.156 1.615857 -1.8742422 0.89076793 
33 1 2 0.078 1.1235712 -2.779858 1.3352057 
34 1 2 0.078 1.4644169 -1.0283022 1.6115148 
35 1 1 -0.156 3.0960083 -2.149748 0.73461384 
36 1 2 0.078 3.4911747 -2.564242 1.6999999 
37 1 2 0.078 3.2520602 -2.9354897 -0.050352134 
38 1 1 -0.158 3.883989 -0.9094127 0.369663 
39 1 2 0.08 3.648027 -0.086365275 1.0941677 
40 1 2 0.08 3.5764704 -0.55243725 -0.6480362 
41 1 1 -0.158 5.3721952 -1.1873083 0.3826266 
42 1 2 0.078 5.6943674 -1.4465181 1.4250132 
43 1 2 0.078 5.5837836 -2.082473 -0.26028574 
44 1 1 -0.156 6.187203 -0.016779147 -0.12526706 
45 1 2 0.078 7.2547536 -0.34382722 -0.24286498 
46 1 2 0.078 5.8194733 0.28398904 -1.1414319 
47 1 1 -0.157 6.1322465 1.1756508 0.8063983 
48 1 2 0.078 6.3547745 0.8381681 1.8534026 
49 1 2 0.078 5.0943246 1.6012579 0.80862516 
50 1 1 -0.158 7.119856 2.256664 0.41976446 
51 1 2 0.077 7.145947 3.0283487 1.2353476 
52 1 2 0.077 8.149788 1.8156425 0.3520005 
53 1 1 -0.211 6.772403 2.9274926 -0.88534814 
54 1 2 0.072 7.4710426 3.77579 -1.0832547 
55 1 2 0.072 6.8485446 2.2061093 -1.7352657 
56 1 2 0.072 5.72926 3.326947 -0.8598105 

Bonds

1 1 1 2 
2 1 2 3 
3 1 2 4 
4 3 2 5 
5 1 5 6 
6 1 5 7 
7 2 5 8 
8 1 8 9 
9 1 8 10 
10 2 8 11 
11 1 11 12 
12 1 11 13 
13 2 11 14 
14 1 14 15 
15 1 14 16 
16 2 14 17 
17 1 17 18 
18 1 17 19 
19 2 17 20 
20 1 20 21 
21 1 20 22 
22 2 20 23 
23 1 23 24 
24 1 23 25 
25 2 23 26 
26 1 26 27 
27 1 26 28 
28 2 26 29 
29 1 29 30 
30 1 29 31 
31 2 29 32 
32 1 32 33 
33 1 32 34 
34 2 32 35 
35 1 35 36 
36 1 35 37 
37 2 35 38 
38 1 38 39 
39 1 38 40 
40 2 38 41 
41 1 41 42 
42 1 41 43 
43 2 41 44 
44 1 44 45 
45 1 44 46 
46 2 44 47 
47 1 47 48 
48 1 47 49 
49 2 47 50 
50 1 50 51 
51 1 50 52 
52 3 50 53 
53 1 53 54 
54 1 53 55 
55 1 53 56 

Angles

1 4 1 2 3 
2 4 1 2 4 
3 5 1 2 5 
4 4 3 2 4 
5 5 3 2 5 
6 5 4 2 5 
7 1 2 5 6 
8 1 2 5 7 
9 3 2 5 8 
10 7 6 5 7 
11 2 6 5 8 
12 2 7 5 8 
13 6 5 8 9 
14 6 5 8 10 
15 3 5 8 11 
16 7 9 8 10 
17 1 9 8 11 
18 1 10 8 11 
19 2 8 11 12 
20 2 8 11 13 
21 3 8 11 14 
22 7 12 11 13 
23 6 12 11 14 
24 6 13 11 14 
25 2 11 14 15 
26 2 11 14 16 
27 3 11 14 17 
28 7 15 14 16 
29 2 15 14 17 
30 2 16 14 17 
31 1 14 17 18 
32 1 14 17 19 
33 3 14 17 20 
34 7 18 17 19 
35 2 18 17 20 
36 2 19 17 20 
37 6 17 20 21 
38 6 17 20 22 
39 3 17 20 23 
40 7 21 20 22 
41 2 21 20 23 
42 2 22 20 23 
43 2 20 23 24 
44 2 20 23 25 
45 3 20 23 26 
46 7 24 23 25 
47 6 24 23 26 
48 6 25 23 26 
49 2 23 26 27 
50 2 23 26 28 
51 3 23 26 29 
52 7 27 26 28 
53 2 27 26 29 
54 2 28 26 29 
55 2 26 29 30 
56 2 26 29 31 
57 3 26 29 32 
58 7 30 29 31 
59 2 30 29 32 
60 2 31 29 32 
61 6 29 32 33 
62 6 29 32 34 
63 3 29 32 35 
64 7 33 32 34 
65 2 33 32 35 
66 2 34 32 35 
67 2 32 35 36 
68 2 32 35 37 
69 3 32 35 38 
70 7 36 35 37 
71 6 36 35 38 
72 6 37 35 38 
73 2 35 38 39 
74 2 35 38 40 
75 3 35 38 41 
76 7 39 38 40 
77 1 39 38 41 
78 1 40 38 41 
79 2 38 41 42 
80 2 38 41 43 
81 3 38 41 44 
82 7 42 41 43 
83 2 42 41 44 
84 2 43 41 44 
85 6 41 44 45 
86 6 41 44 46 
87 3 41 44 47 
88 7 45 44 46 
89 2 45 44 47 
90 2 46 44 47 
91 1 44 47 48 
92 1 44 47 49 
93 3 44 47 50 
94 7 48 47 49 
95 6 48 47 50 
96 6 49 47 50 
97 2 47 50 51 
98 2 47 50 52 
99 3 47 50 53 
100 7 51 50 52 
101 1 51 50 53 
102 1 52 50 53 
103 5 50 53 54 
104 5 50 53 55 
105 5 50 53 56 
106 4 54 53 55 
107 4 54 53 56 
108 4 55 53 56 

Dihedrals

1 2 1 2 5 6 
2 2 1 2 5 7 
3 2 1 2 5 8 
4 2 2 5 8 9 
5 2 2 5 8 10 
6 1 2 5 8 11 
7 2 3 2 5 6 
8 2 3 2 5 7 
9 1 3 2 5 8 
10 2 4 2 5 6 
11 2 4 2 5 7 
12 2 4 2 5 8 
13 2 5 8 11 12 
14 2 5 8 11 13 
15 1 5 8 11 14 
16 2 6 5 8 9 
17 2 6 5 8 10 
18 2 6 5 8 11 
19 2 7 5 8 9 
20 2 7 5 8 10 
21 2 7 5 8 11 
22 2 8 11 14 15 
23 2 8 11 14 16 
24 1 8 11 14 17 
25 2 9 8 11 12 
26 2 9 8 11 13 
27 2 9 8 11 14 
28 2 10 8 11 12 
29 2 10 8 11 13 
30 2 10 8 11 14 
31 2 11 14 17 18 
32 2 11 14 17 19 
33 1 11 14 17 20 
34 2 12 11 14 15 
35 2 12 11 14 16 
36 2 12 11 14 17 
37 2 13 11 14 15 
38 2 13 11 14 16 
39 2 13 11 14 17 
40 2 14 17 20 21 
41 2 14 17 20 22 
42 1 14 17 20 23 
43 2 15 14 17 18 
44 2 15 14 17 19 
45 2 15 14 17 20 
46 2 16 14 17 18 
47 2 16 14 17 19 
48 2 16 14 17 20 
49 2 17 20 23 24 
50 2 17 20 23 25 
51 1 17 20 23 26 
52 2 18 17 20 21 
53 2 18 17 20 22 
54 2 18 17 20 23 
55 2 19 17 20 21 
56 2 19 17 20 22 
57 2 19 17 20 23 
58 2 20 23 26 27 
59 2 20 23 26 28 
60 1 20 23 26 29 
61 2 21 20 23 24 
62 2 21 20 23 25 
63 2 21 20 23 26 
64 2 22 20 23 24 
65 2 22 20 23 25 
66 2 22 20 23 26 
67 2 23 26 29 30 
68 2 23 26 29 31 
69 1 23 26 29 32 
70 2 24 23 26 27 
71 2 24 23 26 28 
72 2 24 23 26 29 
73 2 25 23 26 27 
74 2 25 23 26 28 
75 2 25 23 26 29 
76 2 26 29 32 33 
77 2 26 29 32 34 
78 1 26 29 32 35 
79 2 27 26 29 30 
80 2 27 26 29 31 
81 2 27 26 29 32 
82 2 28 26 29 30 
83 2 28 26 29 31 
84 2 28 26 29 32 
85 2 29 32 35 36 
86 2 29 32 35 37 
87 1 29 32 35 38 
88 2 30 29 32 33 
89 2 30 29 32 34 
90 2 30 29 32 35 
91 2 31 29 32 33 
92 2 31 29 32 34 
93 2 31 29 32 35 
94 2 32 35 38 39 
95 2 32 35 38 40 
96 1 32 35 38 41 
97 2 33 32 35 36 
98 2 33 32 35 37 
99 2 33 32 35 38 
100 2 34 32 35 36 
101 2 34 32 35 37 
102 2 34 32 35 38 
103 2 35 38 41 42 
104 2 35 38 41 43 
105 1 35 38 41 44 
106 2 36 35 38 39 
107 2 36 35 38 40 
108 2 36 35 38 41 
109 2 37 35 38 39 
110 2 37 35 38 40 
111 2 37 35 38 41 
112 2 38 41 44 45 
113 2 38 41 44 46 
114 1 38 41 44 47 
115 2 39 38 41 42 
116 2 39 38 41 43 
117 2 39 38 41 44 
118 2 40 38 41 42 
119 2 40 38 41 43 
120 2 40 38 41 44 
121 2 41 44 47 48 
122 2 41 44 47 49 
123 1 41 44 47 50 
124 2 42 41 44 45 
125 2 42 41 44 46 
126 2 42 41 44 47 
127 2 43 41 44 45 
128 2 43 41 44 46 
129 2 43 41 44 47 
130 2 44 47 50 51 
131 2 44 47 50 52 
132 1 44 47 50 53 
133 2 45 44 47 48 
134 2 45 44 47 49 
135 2 45 44 47 50 
136 2 46 44 47 48 
137 2 46 44 47 49 
138 2 46 44 47 50 
139 1 47 50 53 54 
140 2 47 50 53 55 
141 2 47 50 53 56 
142 2 48 47 50 51 
143 2 48 47 50 52 
144 2 48 47 50 53 
145 2 49 47 50 51 
146 2 49 47 50 52 
147 2 49 47 50 53 
148 2 51 50 53 54 
149 2 51 50 53 55 
150 2 51 50 53 56 
151 2 52 50 53 54 
152 2 52 50 53 55 
153 2 52 50 53 56 
