LAMMPS data file via write_data, version 29 Sep 2021, timestep = 50000

11 atoms
2 atom types
10 bonds
2 bond types
18 angles
4 angle types
18 dihedrals
2 dihedral types

-25 25 xlo xhi
-25 25 ylo yhi
-25 25 zlo zhi

Masses

1 12.011
2 1.008

Pair Coeffs # lj/cut/coul/long

1 0.0663016 3.58118
2 0.0282937 2.37341

Bond Coeffs # harmonic

1 349.274 1.09
2 400.034 1.53

Angle Coeffs # harmonic

1 55.1139 111
2 52.4767 107.57
3 55.0247 106.75
4 47.4817 109.5

Dihedral Coeffs # harmonic

1 1.41491 1 3
2 0 1 1

Atoms # full

3 1 2 0.068 0.8171368942583672 -1.809621719565055 -0.40998598506605155 0 0 0
5 1 1 0.27 -0.36081661066786624 0.16338098699040982 -0.463504403065776 0 0 0
6 1 2 -0.037 -1.3956490163930542 0.3152484984305308 -0.45878784574820075 0 0 0
7 1 2 -0.037 -0.12921891147582282 0.18902573768076558 -1.5610373745222228 0 0 0
11 1 2 0.068 0.31370539127540187 2.1273358820798003 -0.044822105556256264 0 0 0
2 1 1 -0.302 -0.1159491137061636 -1.2882923600252487 0.04717254283280009 0 0 0
1 1 2 0.068 -0.9753833228382811 -1.9184726640363081 -0.16449898313490685 0 0 0
4 1 2 0.068 0.1265779994830095 -1.3066782522521216 1.1147083341502035 0 0 0
10 1 2 0.068 0.060407375750669734 1.161050950797197 1.4246318267711482 0 0 0
9 1 2 0.068 1.4869493637294133 1.0066316091280014 0.3334671683520611 0 0 0
8 1 1 -0.302 0.4512209904104344 1.1608299428187823 0.3966671249553182 0 0 0

Velocities

3 -0.0032340999224392255 0.003471751047179151 -0.025727333995678458
5 0.0016825523409756023 -0.0026229379173983046 0.0027658712274000728
6 -0.0028221959484206133 0.01675642933734577 0.003733768250011955
7 -0.004240405818848677 0.02602058210475025 -0.009008165101052821
11 0.01269093172161221 -0.014690063797423703 -0.029669006881765738
2 0.002392233188647298 -0.00028794164853832607 0.002025367521948413
1 -0.000590611887309593 0.007397096577419651 0.007532385782571834
4 -0.01601931051292481 0.00820560002176464 -0.0122460007254227
10 -0.011877588954059997 0.0004478870549385628 -0.02527124577493214
9 0.01219349579755244 0.006622871016634457 0.0006833571266557477
8 -0.002908272848827216 -0.0016404492650940626 0.0027595080036420415

Bonds

1 1 5 6
2 1 5 7
3 2 5 8
4 1 2 3
5 1 2 4
6 2 2 5
7 1 1 2
8 1 8 9
9 1 8 10
10 1 8 11

Angles

1 4 2 5 6
2 4 2 5 7
3 1 2 5 8
4 3 6 5 7
5 4 6 5 8
6 4 7 5 8
7 2 1 2 3
8 2 1 2 4
9 1 1 2 5
10 2 3 2 4
11 1 3 2 5
12 1 4 2 5
13 1 5 8 9
14 1 5 8 10
15 1 5 8 11
16 2 9 8 10
17 2 9 8 11
18 2 10 8 11

Dihedrals

1 1 2 5 8 9
2 2 2 5 8 10
3 2 2 5 8 11
4 2 6 5 8 9
5 2 6 5 8 10
6 2 6 5 8 11
7 2 7 5 8 9
8 2 7 5 8 10
9 2 7 5 8 11
10 2 1 2 5 6
11 2 1 2 5 7
12 2 1 2 5 8
13 2 3 2 5 6
14 2 3 2 5 7
15 1 3 2 5 8
16 2 4 2 5 6
17 2 4 2 5 7
18 2 4 2 5 8
